6
 energy: -10.644255438951 gnorm: 0.002156012768 xtb: 6.2.3 (830e466)
c         0.09057815631097    0.04987493292286   -0.10766998330619
o         0.26634797618396   -0.15081491547277    1.06278490191478
h         0.90352023857191    0.34247304774348   -0.79946293801769
n        -1.09550930942557   -0.04246180025117   -0.73913503772083
h        -1.91603981238430   -0.28901640951966   -0.20946391631680
h        -1.19317389382830    0.15317015578467   -1.71849462107546
6
 energy: -10.641273096641 gnorm: 0.065413983098 xtb: 6.2.3 (830e466)
c         0.09591140366862    0.05304957091218   -0.10340164240608
o         0.26154135395701   -0.15320535723025    1.05956929987008
h         0.93607320513117    0.36841000703383   -0.82998146231063
n        -1.09833864663493   -0.04764723568773   -0.73622655332173
h        -1.88536949559747   -0.25594122107360   -0.17873556730894
h        -1.22183922620167    0.18046611354631   -1.74975178512205
6
 energy: -10.636203686123 gnorm: 0.099471990868 xtb: 6.2.3 (830e466)
c         0.10219086963183    0.05509912767330   -0.10031658439204
o         0.25595877790398   -0.15407491022206    1.05727486409326
h         0.96356613345859    0.38609831947416   -0.85370436417661
n        -1.09922868260686   -0.05347948626365   -0.73558733699453
h        -1.86217149783883   -0.22298867453972   -0.14567809846777
h        -1.24616679509073    0.20081150288099   -1.76838387546586
6
 energy: -10.633861755653 gnorm: 0.103387008060 xtb: 6.2.3 (830e466)
c         0.10865914886860    0.05763290014936   -0.09907724937988
o         0.25058036175869   -0.15500332074080    1.05543382948028
h         0.97976392873688    0.39851398297922   -0.86637976463832
n        -1.09911249931047   -0.05872570853753   -0.73658733309743
h        -1.85020471144773   -0.19263966045639   -0.10772530645864
h        -1.26759605761407    0.21595064743718   -1.76508448566658
6
 energy: -10.634945977908 gnorm: 0.089459274275 xtb: 6.2.3 (830e466)
c         0.11520121167085    0.06072679304427   -0.10012953387401
o         0.24548132162754   -0.15599933058207    1.05418122434609
h         0.98300482415896    0.40462293400593   -0.86605950900180
n        -1.09808942742188   -0.06338836809547   -0.73898981594032
h        -1.84685495232532   -0.16412376634600   -0.06795613345506
h        -1.28550995726196    0.22540992518858   -1.73884340226194
6
 energy: -10.637109321126 gnorm: 0.075103908528 xtb: 6.2.3 (830e466)
c         0.12163670251581    0.06436319921306   -0.10358256509181
o         0.24071201322320   -0.15705330538492    1.05355063582311
h         0.97357972314476    0.40419759015035   -0.85264323348074
n        -1.09649841738018   -0.06759382855100   -0.74196067442343
h        -1.84599315077083   -0.13658062969908   -0.03233204184876
h        -1.30022034783676    0.23038382438691   -1.69470934920889
6
 energy: -10.637355959654 gnorm: 0.087663395707 xtb: 6.2.3 (830e466)
c         0.12771963003252    0.06842505147889   -0.10919062612849
o         0.23629730837017   -0.15813492627588    1.05346428524886
h         0.95379774114161    0.39787547383400   -0.82795867315800
n        -1.09460703150990   -0.07157408403266   -0.74424556660533
h        -1.84187078706057   -0.10988348527007   -0.00649450899256
h        -1.31348059544059    0.23427850928067   -1.64448913790402
6
 energy: -10.635314643628 gnorm: 0.117013339236 xtb: 6.2.3 (830e466)
c         0.13308186148258    0.07268136313621   -0.11634091411769
o         0.23224018935843   -0.15919720557604    1.05375356102878
h         0.92862613901413    0.38743164748512   -0.79630448943710
n        -1.09244835515006   -0.07566861314388   -0.74441445514623
h        -1.83121778502965   -0.08466536286885    0.00636912263365
h        -1.32869079034659    0.24272946871106   -1.60538940127230
6
 energy: -10.633997072289 gnorm: 0.117219887605 xtb: 6.2.3 (830e466)
c         0.13715662684866    0.07677884841702   -0.12406695195323
o         0.22852825495769   -0.16018479101369    1.05419746367873
h         0.90644376153451    0.37606444110744   -0.76501281922927
n        -1.08991373189342   -0.08015937194144   -0.74153637306138
h        -1.81377042583418   -0.06195270041778    0.00623996782404
h        -1.34900967691994    0.26087170405080   -1.59117113649266
6
 energy: -10.633603532959 gnorm: 0.105085397975 xtb: 6.2.3 (830e466)
c         0.13923015583244    0.08029267312184   -0.13119236486260
o         0.22514288363558   -0.16104238993351    1.05456171754969
h         0.89808420671175    0.36795584666716   -0.74344517369106
n        -1.08700151559120   -0.08496124334749   -0.73601119585796
h        -1.79232009135625   -0.04272853781011   -0.00362139223858
h        -1.37363168842194    0.28853197536928   -1.60051333178153
6
 energy: -10.632970434331 gnorm: 0.102682681514 xtb: 6.2.3 (830e466)
c         0.13883326437325    0.08290223602141   -0.13674315814484
o         0.22207065613756   -0.16171949227187    1.05462775958009
h         0.91161226262564    0.36618747467643   -0.73851581711219
n        -1.08383324339181   -0.08962676353258   -0.72938046354007
h        -1.77245179253278   -0.02755269314174   -0.01696700640343
h        -1.39748432130008    0.31996352292706   -1.61935929487479
6
 energy: -10.632265171464 gnorm: 0.100388638832 xtb: 6.2.3 (830e466)
c         0.13625328752883    0.08458496843032   -0.14039204620732
o         0.21931303442088   -0.16217125990016    1.05421012470595
h         0.94566437528710    0.37031767107370   -0.74957224774858
n        -1.08046971029244   -0.09367753762437   -0.72333685612850
h        -1.76107274527205   -0.01640523766346   -0.02612765913576
h        -1.41491976411443    0.34844102018694   -1.63328548653052
6
 energy: -10.631550460588 gnorm: 0.098406503494 xtb: 6.2.3 (830e466)
c         0.13246863688762    0.08557128872903   -0.14238712913976
o         0.21688937607879   -0.16235898443474    1.05316898628513
h         0.99001940647717    0.37686434811926   -0.76940626277707
n        -1.07696895055912   -0.09679370994259   -0.71902688211784
h        -1.76293399610317   -0.00900979351959   -0.02560856671144
h        -1.42221411653937    0.36930324803151   -1.63371908136376
6
 energy: -10.631154596382 gnorm: 0.092429822409 xtb: 6.2.3 (830e466)
c         0.12856814127674    0.08612532512753   -0.14310961894823
o         0.21483376144444   -0.16225255051767    1.05142438441476
h         1.03262955844464    0.38198305356560   -0.78984181113679
n        -1.07361316099856   -0.09879804706426   -0.71681119301456
h        -1.77715806252500   -0.00547905095615   -0.01553770842871
h        -1.41786731693908    0.38037069101991   -1.61779866493386
6
 energy: -10.630945015226 gnorm: 0.083770293555 xtb: 6.2.3 (830e466)
c         0.12535348810822    0.08641641352660   -0.14282483799374
o         0.21319006416665   -0.16183436197829    1.04897135185186
h         1.06448999304651    0.38308553473957   -0.80512758053153
n        -1.07089615139780   -0.09963299471535   -0.71636590032949
h        -1.79765047376482   -0.00650317842419   -0.00111370716268
h        -1.40238315886729    0.38180024759954   -1.58734734686454
6
 energy: -10.630277880520 gnorm: 0.077121328822 xtb: 6.2.3 (830e466)
c         0.12327983598504    0.08651474141434   -0.14169618816085
o         0.21200692965013   -0.16110338589030    1.04589191892453
h         1.08039094730513    0.37894465195031   -0.81219613396253
n        -1.06924127002818   -0.09941976711848   -0.71692414687578
h        -1.81689841772092   -0.01287469818371    0.01115991747011
h        -1.37838006515710    0.37644986177288   -1.54902004511255
6
 energy: -10.628967260438 gnorm: 0.089153032287 xtb: 6.2.3 (830e466)
c         0.12252315249814    0.08642594603907   -0.13987063066350
o         0.21133243070156   -0.16007856885707    1.04236093978975
h         1.07816820224704    0.36933639995990   -0.80997025312104
n        -1.06876038416272   -0.09853750602793   -0.71742844506955
h        -1.82917160464839   -0.02500039482039    0.01642703407949
h        -1.35073985144968    0.37049627626894   -1.51488221146341
6
 energy: -10.629656445340 gnorm: 0.100766074258 xtb: 6.2.3 (830e466)
c         0.12303955605010    0.08612152874133   -0.13752897170433
o         0.21120873459759   -0.15880146419434    1.03864417613795
h         1.05815500182114    0.35479142953708   -0.79891711321570
n        -1.06926417478161   -0.09755343588053   -0.71676864928687
h        -1.83169427190614   -0.04273929767941    0.01238841687205
h        -1.32537086071327    0.37221993220066   -1.49979733853782
6
 energy: -10.634351810850 gnorm: 0.071395259843 xtb: 6.2.3 (830e466)
c         0.12457363575126    0.08555471008656   -0.13487763464224
o         0.21166712271543   -0.15733839129508    1.03508931564550
h         1.02332677279180    0.33658292608402   -0.78113619814213
n        -1.07051136627257   -0.09683788937326   -0.71444882455746
h        -1.82484188732156   -0.06542368766711   -0.00068416303490
h        -1.30568533845654    0.38648999150403   -1.51196762697046
6
 energy: -10.637605306264 gnorm: 0.047913749585 xtb: 6.2.3 (830e466)
c         0.12660968492053    0.08465244224640   -0.13207303045943
o         0.21272432995272   -0.15577663604559    1.03209853585069
h         0.98002583736041    0.31687199251527   -0.76091757904413
n        -1.07235670676549   -0.09620062839722   -0.71115401061682
h        -1.81227768376250   -0.09200807721913   -0.01992547477458
h        -1.29047060550379    0.40970913538282   -1.54492907850749
6
 energy: -10.634728139883 gnorm: 0.098564310784 xtb: 6.2.3 (830e466)
c         0.12832385337884    0.08329181415020   -0.12911222765964
o         0.21438445948352   -0.15421218568610    1.03008252491678
h         0.93843040624292    0.29876476749218   -0.74524960476094
n        -1.07456981926846   -0.09509576080891   -0.70832426207651
h        -1.80073577951007   -0.12142108803133   -0.04007336297444
h        -1.27656817786303    0.43306568876526   -1.58339105777940
6
 energy: -10.630131842663 gnorm: 0.138340174321 xtb: 6.2.3 (830e466)
c         0.12871884646000    0.08131697998692   -0.12583196242774
o         0.21664653094010   -0.15273333371206    1.02940401596772
h         0.91064236017552    0.28573397875076   -0.74268181579256
n        -1.07674005707545   -0.09303302174552   -0.70730201377887
h        -1.79806762498328   -0.15297847906031   -0.05511151944804
h        -1.26198636423667    0.44882015470689   -1.61378167875050
6
 energy: -10.630837126261 gnorm: 0.134173764620 xtb: 6.2.3 (830e466)
c         0.12710747746360    0.07864590499874   -0.12218313618932
o         0.21951463528264   -0.15140397930960    1.03031684057143
h         0.90449667945591    0.27996360816114   -0.75875225817146
n        -1.07853641691427   -0.08974056471192   -0.70880604154872
h        -1.80887619413666   -0.18636259460420   -0.06193235364520
h        -1.24640527051901    0.45267086922421   -1.62825367033299
6
 energy: -10.635777001261 gnorm: 0.100180088959 xtb: 6.2.3 (830e466)
c         0.12357484557475    0.07537266747960   -0.11855704546406
o         0.22299951148872   -0.15025371530461    1.03291605499047
h         0.91781259439380    0.28091136417092   -0.79111308244387
n        -1.07998564768950   -0.08519957885614   -0.71276641106846
h        -1.83100231333864   -0.22086753130007   -0.06305123433776
h        -1.23062255777168    0.44353426054708   -1.62444014691777
6
 energy: -10.638990965027 gnorm: 0.068523801320 xtb: 6.2.3 (830e466)
c         0.11879396041778    0.07170568287259   -0.11563532816154
o         0.22711087859902   -0.14927520995314    1.03711532713466
h         0.94082007466059    0.28600181898633   -0.83094588757793
n        -1.08139559350812   -0.07966379261169   -0.71846585365303
h        -1.85710256559280   -0.25487778253154   -0.06486551166320
h        -1.21613857134470    0.42330362233283   -1.60524049401280
6
 energy: -10.637602926140 gnorm: 0.071742213942 xtb: 6.2.3 (830e466)
c         0.11348900157014    0.06782625502525   -0.11393580090217
o         0.23184366289650   -0.14842965380951    1.04265954810182
h         0.96317966597983    0.29245659226007   -0.86867654581866
n        -1.08305972038634   -0.07365491476097   -0.72476190361992
h        -1.87927879110809   -0.28630821455791   -0.07359566699853
h        -1.20501827855656    0.39718110059822   -1.57970958644183
6
 energy: -10.633670031273 gnorm: 0.106600273775 xtb: 6.2.3 (830e466)
c         0.10817728962971    0.06383228641881   -0.11359111202982
o         0.23716346711898   -0.14765855930527    1.04916245041796
h         0.97770201340642    0.29826351114191   -0.89735527811319
n        -1.08507738621630   -0.06789937935920   -0.73024672944842
h        -1.89217982319598   -0.31337915135191   -0.09285315010259
h        -1.19969487999530    0.37346249124306   -1.56313157782955
6
 energy: -10.633180418195 gnorm: 0.108725458554 xtb: 6.2.3 (830e466)
c         0.10319179717396    0.05976277230179   -0.11440476151713
o         0.24300050732476   -0.14689780918968    1.05616107009675
h         0.98047780626348    0.30222456700167   -0.91294906465952
n        -1.08737615527991   -0.06303935391914   -0.73371974309430
h        -1.89394892991360   -0.33514858348744   -0.12317067445037
h        -1.20201312668152    0.35990424374539   -1.57077601656822
6
 energy: -10.637066710037 gnorm: 0.065127071326 xtb: 6.2.3 (830e466)
c         0.09876054516365    0.05563930353220   -0.11599028828173
o         0.24925012366919   -0.14609092529141    1.06317281151449
h         0.97006916026709    0.30375958570149   -0.91367334315434
n        -1.08982396562156   -0.05915528527637   -0.73507685458224
h        -1.88643704699925   -0.35185241668772   -0.16218383504982
h        -1.21159815551658    0.35728629369094   -1.60517026654429
6
 energy: -10.639513377094 gnorm: 0.053732511853 xtb: 6.2.3 (830e466)
c         0.09503396371178    0.05148447408939   -0.11787783883193
o         0.25578114705433   -0.14519805987567    1.06974986367880
h         0.94704102082633    0.30280638977003   -0.89957750152299
n        -1.09224003479227   -0.05570677400599   -0.73549060653701
h        -1.87529365573238   -0.36523582678838   -0.20494138956264
h        -1.22560574558628    0.35893786966431   -1.65327130243001
6
 energy: -10.638669146697 gnorm: 0.087166917288 xtb: 6.2.3 (830e466)
c         0.09204401094582    0.04731001304100   -0.11955409323091
o         0.26245084767499   -0.14419992347206    1.07552502469142
h         0.91404670878790    0.29989291100832   -0.87265441551486
n        -1.09433260816334   -0.05198664182235   -0.73650637196445
h        -1.86898564521432   -0.37850503060715   -0.24496583308746
h        -1.24040909781194    0.35718252553678   -1.69820851067211
6
 energy: -10.637054166734 gnorm: 0.102895544338 xtb: 6.2.3 (830e466)
c         0.08961634105083    0.04308716789659   -0.12043664415140
o         0.26911694163807   -0.14309876704148    1.08023706856581
h         0.87639056853518    0.29638084266996   -0.83741533408484
n        -1.09584755805540   -0.04750138606798   -0.73921629310545
h        -1.87502317537980   -0.39497026371750   -0.27692456027518
h        -1.25299140846657    0.34743781097612   -1.72832161569271
6
 energy: -10.635950127622 gnorm: 0.105776647450 xtb: 6.2.3 (830e466)
c         0.08728836262171    0.03871372901761   -0.11983141624591
o         0.27564676972762   -0.14191713169108    1.08373773543329
h         0.84252252069257    0.29474746280128   -0.80141396263323
n        -1.09690352339532   -0.04214811112945   -0.74395796851631
h        -1.89458359847877   -0.41556976371866   -0.29965957963125
h        -1.26128497397833    0.32831171449169   -1.73845054682523
6
 energy: -10.635436530454 gnorm: 0.109910019042 xtb: 6.2.3 (830e466)
c         0.08437741795666    0.03402391472525   -0.11701381918929
o         0.28192473825113   -0.14069405883148    1.08598368204908
h         0.82274457364250    0.29833401274302   -0.77411625169556
n        -1.09805187637951   -0.03622300081308   -0.75037994016040
h        -1.92132692338373   -0.43786723689017   -0.31616423783760
h        -1.26416023548468    0.30079105899167   -1.72906817216907
6
 energy: -10.636180880089 gnorm: 0.101063682594 xtb: 6.2.3 (830e466)
c         0.08035768531462    0.02891123984102   -0.11158009669411
o         0.28785847326690   -0.13947918836254    1.08701888498971
h         0.82423562907489    0.30972313369415   -0.76245498016178
n        -1.09991433138285   -0.03026527691193   -0.75764123711087
h        -1.94599939492654   -0.45781778195922   -0.33056341694600
h        -1.26154824695354    0.26787419583828   -1.70644907015450
6
 energy: -10.636433596046 gnorm: 0.099573705554 xtb: 6.2.3 (830e466)
c         0.07530141099993    0.02350375709450   -0.10383262905263
o         0.29338236784354   -0.13832704298804    1.08695749225165
h         0.84551223084361    0.32853258611605   -0.76602456369634
n        -1.10281207882217   -0.02488019753403   -0.76451554384098
h        -1.96124756383982   -0.47202591012746   -0.34566823098169
h        -1.25463824208426    0.23435986975501   -1.68355883890136
6
 energy: -10.635529868833 gnorm: 0.115005888212 xtb: 6.2.3 (830e466)
c         0.06981095010612    0.01816852109798   -0.09468803346340
o         0.29845729280585   -0.13729412946668    1.08597683051752
h         0.87747698908160    0.35137513913114   -0.77814871937322
n        -1.10668170681533   -0.02057385914422   -0.76959709150549
h        -1.96350231312408   -0.47879222423927   -0.36238955652665
h        -1.24539882385044    0.20552013594675   -1.67768094605589
6
 energy: -10.636070500491 gnorm: 0.097048403067 xtb: 6.2.3 (830e466)
c         0.06455714801378    0.01334058776999   -0.08524031634934
o         0.30306619357935   -0.13643880931461    1.08431811842819
h         0.90962514638039    0.37402475804384   -0.79117652630160
n        -1.11123781320327   -0.01752062105136   -0.77203983428268
h        -1.95315267591239   -0.47832775728880   -0.38001323708853
h        -1.23471822870141    0.18394266898332   -1.69975031421925
6
 energy: -10.636071390716 gnorm: 0.070073284014 xtb: 6.2.3 (830e466)
c         0.05999310895152    0.00938905423055   -0.07648332108545
o         0.30720873995330   -0.13582131265877    1.08228323313226
h         0.93415392584934    0.39311305181073   -0.79972479693544
n        -1.11610960941361   -0.01543614356899   -0.77229312087458
h        -1.93446067325159   -0.47283294223848   -0.39650210792255
h        -1.22116201623584    0.16774414943137   -1.74378646620832
6
 energy: -10.632941409214 gnorm: 0.090846861820 xtb: 6.2.3 (830e466)
c         0.05633623767816    0.00658316578161   -0.06924569524069
o         0.31089739354046   -0.13550155142948    1.08021494661480
h         0.94654014361913    0.40651272490206   -0.80096047242708
n        -1.12076902018897   -0.01376121880381   -0.77169952782873
h        -1.91518332686324   -0.46643053902422   -0.40877075825568
h        -1.20265714379608    0.15306669478096   -1.79243428108531
6
 energy: -10.629554120583 gnorm: 0.118044759899 xtb: 6.2.3 (830e466)
c         0.05364055087690    0.00510051995735   -0.06417312807478
o         0.31415114190538   -0.13553524398049    1.07845684288590
h         0.94480205396902    0.41314683074027   -0.79393284751500
n        -1.12454844713954   -0.01194770661800   -0.77154283807380
h        -1.90438459671923   -0.46407045716252   -0.41356851432005
h        -1.17846132804848    0.13701790832143   -1.82965550794103
6
 energy: -10.629877810063 gnorm: 0.119242913365 xtb: 6.2.3 (830e466)
c         0.05185857489449    0.00503377118482   -0.06168593371174
o         0.31698433300352   -0.13596927523694    1.07730163910438
h         0.92887159020570    0.41280053523040   -0.77908233303588
n        -1.12697429342548   -0.00969500934419   -0.77254487274606
h        -1.90753782129603   -0.46878382467058   -0.40943620927966
h        -1.14932605943810    0.11827065290141   -1.84599358676098
6
 energy: -10.633600236873 gnorm: 0.097699077578 xtb: 6.2.3 (830e466)
c         0.05086504388439    0.00638181412710   -0.06191546114902
o         0.31939273310815   -0.13683603870095    1.07694372306004
h         0.90050077121806    0.40612561534120   -0.75817502875487
n        -1.12809058008595   -0.00708906007027   -0.77477033296820
h        -1.92254663356895   -0.47928496042620   -0.39831762702954
h        -1.11691086213972    0.09662266235517   -1.83836487530318
6
 energy: -10.636917493056 gnorm: 0.070032981508 xtb: 6.2.3 (830e466)
c         0.05042959665414    0.00902505776815   -0.06463214407746
o         0.32134903645144   -0.13814786123884    1.07744677988176
h         0.86369308260871    0.39485779309230   -0.73460034557510
n        -1.12837083149532   -0.00450747398012   -0.77772316614398
h        -1.94158187943467   -0.49090443573031   -0.38470754269692
h        -1.08321217700407    0.07259152840715   -1.80960943350461
6
 energy: -10.636144865057 gnorm: 0.073603296425 xtb: 6.2.3 (830e466)
c         0.05015685772035    0.01269897121652   -0.06919928042787
o         0.32280813729401   -0.13989340326228    1.07873605357793
h         0.82533293634441    0.38210566150007   -0.71380531194873
n        -1.12838511925776   -0.00238376814705   -0.78046655584058
h        -1.95633140431930   -0.49863734356527   -0.37325038413320
h        -1.04997133130316    0.04713168001545   -1.76920872381877
6
 energy: -10.631702893918 gnorm: 0.116775848671 xtb: 6.2.3 (830e466)
c         0.04948104279743    0.01700119238480   -0.07461240023552
o         0.32371653272619   -0.14203501028276    1.08061129970752
h         0.79497381881660    0.37222916666580   -0.70309492622389
n        -1.12860011276447   -0.00103197429589   -0.78172793461556
h        -1.96136918894716   -0.49918604920817   -0.36710829556940
h        -1.01797983069742    0.02121430088273   -1.73338070971824
6
 energy: -10.630276246880 gnorm: 0.128827012010 xtb: 6.2.3 (830e466)
c         0.04788336338200    0.02150945156972   -0.07974919679995
o         0.32402341371378   -0.14450824080265    1.08277160992517
h         0.78177171724950    0.36936766346554   -0.70917451605794
n        -1.12930866310652   -0.00055243040810   -0.78034024566408
h        -1.95503246745028   -0.49155259786194   -0.36745610760616
h        -0.98691060394790   -0.00485177006623   -1.71925722615611
6
 energy: -10.634432210326 gnorm: 0.084832568339 xtb: 6.2.3 (830e466)
c         0.04531883289860    0.02599701616893   -0.08381669838162
o         0.32368919700417   -0.14722351278384    1.08484882292619
h         0.78887477281700    0.37479226194179   -0.73353301928418
n        -1.13047997795527   -0.00081011791681   -0.77614434820031
h        -1.93953208022779   -0.47715457220470   -0.37338492708690
h        -0.95695862047423   -0.03152125908464   -1.73212107856183
6
 energy: -10.636858223134 gnorm: 0.058267209959 xtb: 6.2.3 (830e466)
c         0.04237728888947    0.03051972123665   -0.08659547447671
o         0.32269103219474   -0.15007348418561    1.08645399783724
h         0.81113272499869    0.38592239148878   -0.77047319900684
n        -1.13160516118758   -0.00150333942528   -0.77030268441978
h        -1.92104469625026   -0.45984941837341   -0.38186843682225
h        -0.93064369784666   -0.05896996418971   -1.76082653749637
